<?xml version="1.0"?>
<VTKFile type="UnstructuredGrid" version="0.1" byte_order="LittleEndian">
  <UnstructuredGrid>
    <Piece NumberOfPoints="16879" NumberOfCells="77469">
      <Points>
        <DataArray type="Float32" NumberOfComponents="3" format="ascii">
116.558500  24.161300  114.400000
111.996400  24.215870  114.400000
111.232400  28.549020  114.400000
112.760500  19.882720  114.400000
113.524500  15.549560  124.650000
112.760500  19.882720  124.650000
114.288600  11.216410  114.400000
113.524500  15.549560  114.400000
124.777300  26.063320  114.400000
119.154400  30.555140  114.400000
127.076400  32.561260  114.400000
117.774300  17.343860  114.400000
125.914800  18.068510  114.400000
122.419000  12.040760  114.400000
130.549300  12.865100  114.400000
132.368600  15.216750  114.400000
130.979400  23.095210  114.400000
129.590200  30.973670  114.400000
94.759900  64.871020  114.400000
96.959920  61.060500  114.400000
101.265500  62.569540  114.400000
111.996400  24.215870  124.650000
116.558500  24.161300  124.650000
111.232400  28.549020  124.650000
119.154400  30.555140  124.650000
112.760500  19.882720  134.900000
113.524500  15.549560  134.900000
114.288600  11.216410  124.650000
122.419000  12.040760  124.650000
130.549300  12.865100  124.650000
117.774300  17.343860  124.650000
124.777300  26.063320  124.650000
127.076400  32.561260  124.650000
125.914800  18.068510  124.650000
132.368600  15.216750  124.650000
130.979400  23.095210  124.650000
129.590200  30.973670  124.650000
96.959920  61.060500  124.650000
108.338200  67.167860  114.400000
101.518000  69.465620  114.400000
108.276100  74.060240  114.400000
101.518000  69.465620  124.650000
94.759900  64.871020  124.650000
101.265500  62.569540  124.650000
99.159900  57.249990  114.400000
101.359900  53.439480  124.650000
99.159900  57.249990  124.650000
101.359900  53.439480  114.400000
103.559900  49.628960  114.400000
104.739700  56.579070  114.400000
112.141400  60.044230  114.400000
110.918000  53.184350  114.400000
118.276100  56.739730  114.400000
119.181400  59.571790  114.400000
115.181400  66.499980  114.400000
111.181400  73.428190  114.400000
107.923600  4.950425  155.400000
114.288600  11.216410  134.900000
111.888100  5.241281  155.400000
107.583400  9.890450  155.400000
107.053800  14.814770  155.400000
111.996400  24.215870  134.900000
113.524500  15.549560  145.150000
114.288600  11.216410  145.150000
122.419000  12.040760  134.900000
130.549300  12.865100  134.900000
116.558500  24.161300  134.900000
112.760500  19.882720  145.150000
111.232400  28.549020  134.900000
119.154400  30.555140  134.900000
132.368600  15.216750  134.900000
117.774300  17.343860  134.900000
117.774300  17.343860  145.150000
125.914800  18.068510  134.900000
124.777300  26.063320  134.900000
127.076400  32.561260  134.900000
130.979400  23.095210  134.900000
129.590200  30.973670  134.900000
99.721820  41.563900  155.400000
99.721820  41.563900  167.900000
97.712570  46.089650  155.400000
95.530750  50.535890  155.400000
96.959920  61.060500  134.900000
108.276100  74.060240  124.650000
99.159900  57.249990  134.900000
101.359900  53.439480  134.900000
103.559900  49.628960  124.650000
108.338200  67.167860  124.650000
101.359900  53.439480  145.150000
103.559900  49.628960  134.900000
101.265500  62.569540  134.900000
99.159900  57.249990  145.150000
101.518000  69.465620  134.900000
94.759900  64.871020  134.900000
104.739700  56.579070  124.650000
110.918000  53.184350  134.900000
110.918000  53.184350  124.650000
118.276100  56.739730  134.900000
118.276100  56.739730  124.650000
112.141400  60.044230  124.650000
119.181400  59.571790  124.650000
115.181400  66.499980  124.650000
111.181400  73.428190  124.650000
107.923600  4.950425  167.900000
118.938900  5.857405  155.400000
108.000000  0.000000  155.400000
108.000000  0.000000  167.900000
110.993100  15.509370  155.400000
110.530000  18.135520  155.400000
114.400000  0.000000  155.400000
111.888100  5.241281  167.900000
107.583400  9.890450  167.900000
107.053800  14.814770  167.900000
122.419000  12.040760  145.150000
120.800000  0.000000  155.400000
103.108100  32.260150  167.900000
103.108100  32.260150  155.400000
101.486800  36.938180  155.400000
103.347800  43.193180  155.400000
114.288600  11.216410  155.400000
113.524500  15.549560  155.400000
111.996400  24.215870  145.150000
110.066900  20.761670  155.400000
111.232400  28.549020  145.150000
104.478000  27.501690  155.400000
112.760500  19.882720  155.400000
111.996400  24.215870  155.400000
122.419000  12.040760  155.400000
125.914800  18.068510  145.150000
132.368600  15.216750  145.150000
130.549300  12.865100  145.150000
125.368900  6.192064  155.400000
127.200000  0.000000  155.400000
133.600000  0.000000  155.400000
133.007300  5.809394  155.400000
106.879500  33.295310  155.400000
117.774300  17.343860  155.400000
125.914800  18.068510  155.400000
116.558500  24.161300  145.150000
119.154400  30.555140  145.150000
116.558500  24.161300  155.400000
101.486800  36.938180  167.900000
99.721820  41.563900  180.400000
98.994840  52.535890  155.400000
97.661510  54.845290  155.400000
103.559900  49.628960  145.150000
130.979400  23.095210  145.150000
140.000000  0.000000  155.400000
150.000000  0.000000  155.400000
124.777300  26.063320  145.150000
124.777300  26.063320  155.400000
127.076400  32.561260  145.150000
129.590200  30.973670  145.150000
150.000000  0.000000  167.900000
103.347800  43.193180  167.900000
97.712570  46.089650  167.900000
95.530750  50.535890  167.900000
109.762700  46.183660  155.400000
103.559900  49.628960  155.400000
101.359900  53.439480  155.400000
99.159900  57.249990  155.400000
110.918000  53.184350  145.150000
101.359900  53.439480  167.900000
98.994840  52.535890  167.900000
140.000000  0.000000  144.400000
150.000000  0.000000  144.400000
139.763200  8.140277  144.400000
150.000000  13.636360  144.400000
139.053400  16.253010  144.400000
96.959920  61.060500  155.400000
96.959920  61.060500  145.150000
96.328180  57.154690  155.400000
94.759900  64.871020  145.150000
118.276100  56.739730  145.150000
108.276100  74.060240  134.900000
104.739700  56.579070  134.900000
108.338200  67.167860  134.900000
104.739700  56.579070  145.150000
101.518000  69.465620  145.150000
101.265500  62.569540  145.150000
104.739700  56.579070  155.400000
112.141400  60.044230  155.400000
101.265500  62.569540  155.400000
112.141400  60.044230  145.150000
112.141400  60.044230  134.900000
119.181400  59.571790  145.150000
119.181400  59.571790  134.900000
115.181400  66.499980  134.900000
111.181400  73.428190  134.900000
107.923600  4.950425  180.400000
108.000000  0.000000  180.400000
113.524500  15.549560  167.900000
110.993100  15.509370  167.900000
118.938900  5.857405  167.900000
114.400000  0.000000  167.900000
114.400000  0.000000  180.400000
99.721820  41.563900  192.900000
111.888100  5.241281  180.400000
107.583400  9.890450  180.400000
107.053800  14.814770  180.400000
112.760500  19.882720  167.900000
110.530000  18.135520  167.900000
120.800000  0.000000  167.900000
118.938900  5.857405  180.400000
110.993100  15.509370  180.400000
101.486800  36.938180  180.400000
103.108100  32.260150  180.400000
114.288600  11.216410  167.900000
113.524500  15.549560  180.400000
110.066900  20.761670  167.900000
104.478000  27.501690  167.900000
111.996400  24.215870  167.900000
105.664600  22.693230  155.400000
109.603900  23.387830  155.400000
127.200000  0.000000  167.900000
130.549300  12.865100  155.400000
125.368900  6.192064  167.900000
122.419000  12.040760  167.900000
106.879500  33.295310  167.900000
107.500800  39.127110  167.900000
107.500800  39.127110  155.400000
117.774300  17.343860  167.900000
111.232400  28.549020  155.400000
116.558500  24.161300  167.900000
133.600000  0.000000  167.900000
125.914800  18.068510  167.900000
130.979400  23.095210  155.400000
132.368600  15.216750  155.400000
133.007300  5.809394  167.900000
139.763200  8.140277  155.400000
113.385500  34.845960  155.400000
124.777300  26.063320  167.900000
119.154400  30.555140  155.400000
140.000000  0.000000  167.900000
150.000000  0.000000  180.400000
103.347800  43.193180  180.400000
97.712570  46.089650  180.400000
95.530750  50.535890  180.400000
99.159900  57.249990  167.900000
97.661510  54.845290  167.900000
110.918000  53.184350  155.400000
109.762700  46.183660  167.900000
113.514900  41.316030  155.400000
129.590200  30.973670  155.400000
150.000000  13.636360  155.400000
139.053400  16.253010  155.400000
127.076400  32.561260  155.400000
119.874700  36.985620  155.400000
126.977200  40.021660  155.400000
109.762700  46.183660  180.400000
113.514900  41.316030  167.900000
137.873100  24.310750  155.400000
150.000000  13.636360  167.900000
136.226300  32.286220  155.400000
103.559900  49.628960  167.900000
96.328180  57.154690  167.900000
96.959920  61.060500  167.900000
91.530740  57.464090  155.400000
94.994840  59.464090  155.400000
119.528900  43.504960  155.400000
115.690500  48.697330  155.400000
125.542900  45.693890  155.400000
110.918000  53.184350  167.900000
104.739700  56.579070  167.900000
112.141400  60.044230  167.900000
101.265500  62.569540  167.900000
118.276100  56.739730  155.400000
122.999100  50.950210  155.400000
101.359900  53.439480  180.400000
98.994840  52.535890  180.400000
95.530750  50.535890  192.900000
99.159900  57.249990  180.400000
97.661510  54.845290  180.400000
140.000000  0.000000  130.200000
150.000000  0.000000  130.200000
139.763200  8.140277  130.200000
140.000000  0.000000  116.000000
150.000000  0.000000  116.000000
139.763200  8.140277  116.000000
150.000000  27.272730  144.400000
137.873100  24.310750  144.400000
150.000000  40.909090  144.400000
142.693000  38.134650  144.400000
136.226300  32.286220  144.400000
150.000000  13.636360  130.200000
139.053400  16.253010  130.200000
150.000000  27.272730  130.200000
137.873100  24.310750  130.200000
[...]
      <PointData Scalars="scalars">
        <DataArray type="Float32" Name="Temperature" format="ascii">
99.309546 98.791224 98.900766 99.256681 98.465506 99.039996 98.884977 98.878936 99.475759 99.274467 98.990675 99.672040 99.509076 99.274001 99.050064 99.006746 99.276321 99.041422 98.900761 98.791214 99.309546 98.462040 99.994305 98.977718 99.257418 99.338465 98.839722 99.001166 99.379686 99.112407 99.995539 99.996722 98.832650 99.996453 98.856783 99.261906 99.102022 98.462023 99.475760 99.274471 98.990680 99.257423 98.977714 99.994305 99.256681 98.465498 99.039995 98.878932 98.884974 99.672040 99.509076 99.273999 99.050065 99.006752 99.276322 99.041421 98.726693 99.002384 99.431891 99.062816 98.532940 98.836281 98.797275 98.705640 99.379533 99.113413 99.995256 99.280655 98.978742 99.381180 99.136253 99.996432 99.994616 99.997054 99.997479 99.117955 99.384971 99.103419 98.838826 98.278361 99.063164 98.532945 98.836268 98.832656 99.338464 98.839716 99.001163 99.996722 98.797268 99.002380 99.995256 99.280655 99.381185 98.978738 99.995539 99.379531 99.379685 99.113414 99.112408 99.996453 98.856791 99.261907 99.102021 98.277921 99.574113 99.525798 99.343499 98.925735 96.929367 99.787166 99.994128 99.415591 99.103038 99.076089 99.786669 98.252851 98.707561 99.202639 99.432138 99.739186 99.615774 98.835653 98.245981 98.672580 99.167061 99.765086 99.614870 99.787251 99.996554 99.135307 98.827337 99.658791 99.786897 99.715172 99.435877 99.431569 99.998920 99.998690 99.995375 99.260068 99.997915 99.433023 98.696415 98.925749 96.929337 98.705636 99.265736 99.850750 99.462945 99.997365 99.998844 99.117209 98.814141 99.469074 99.994377 99.415594 99.103040 99.574105 99.739186 99.615772 99.765086 99.076087 99.987712 99.262361 99.798630 99.479052 99.480223 99.685885 99.742618 99.614867 98.835638 98.245988 98.672577 98.827338 99.117959 99.996432 99.997479 99.994616 99.260074 99.995375 99.998920 99.998690 99.997915 99.996554 99.997054 99.135314 99.136259 99.384972 99.103418 98.696565 99.502878 99.987712 99.262349 99.999770 99.999194 99.999502 98.696741 99.995061 99.416239 99.103688 99.984120 97.952871 99.999836 99.999995 99.263007 99.502270 98.675820 99.998761 99.990126 99.274972 99.351498 99.988247 99.010265 98.671973 99.999834 99.716155 99.999778 99.999914 99.993998 99.999281 99.783712 100.000069 99.697455 99.999797 99.999841 100.000013 99.757399 99.622294 99.999782 99.777211 99.656182 99.999986 99.788660 99.999278 99.469086 99.995107 99.416240 99.103690 99.984119 97.952844 99.787251 99.999737 99.785702 99.611775 99.679657 99.859469 99.732215 99.586649 99.435964 99.999995 99.999866 99.798373 99.638936 99.839536 99.998761 99.274982 99.988247 99.010264 98.671987 99.788515 99.658793 99.771251 99.999914 100.000069 100.000013 99.999797 99.716173 99.436084 99.990127 99.263019 99.103691 99.987871 98.027847 99.802061 99.468587 99.496089 99.802066 99.468583 99.496107 99.754734 99.559106 99.502965 99.998517 99.671547 99.681565 99.741890 99.742156 99.572746 99.999191 99.535629 99.533421 99.351495 99.167058 99.697454 99.622234 99.788662 99.117214 99.997365 99.999986 99.757376 99.998844 99.265738 98.814139 99.616157 99.730614 99.999200 98.696728 99.503171 99.999417 99.416241 98.696741 99.995062 99.416239 99.103688 99.987871 98.027873 99.999999 99.999999 99.999995 99.995062 99.502411 98.675943 99.998917 99.184028 99.989127 99.412440 98.727405 99.098363 100.000000 100.000000 99.999999 99.990128 99.263009 99.103688 99.987877 98.028096 99.999414 99.994790 99.999979 99.996020 99.999970 99.999999 99.999858 99.999999 100.000000 99.999740 100.000000 99.999929 99.999979 99.999570 99.469052 99.999834 99.999422 99.999822 99.999999 99.999995 99.999804 99.999826 99.999624 99.682098 99.999556 99.999911 98.696741 99.998917 99.184037 99.989127 98.727417 99.098361 99.999745 99.999883 99.999869 99.999999 99.792936 99.792608 99.735864 99.998793 99.999815 100.000000 100.000000 100.000000 99.999891 99.710564 99.999091 99.999979 100.000000 99.996020 99.999970 99.999766 99.999834 99.999971 99.999772 99.999390 99.999531 99.475707 100.000000 99.999929 99.990128 99.263020 99.416241 99.103691 99.815402 99.807794 99.713337 99.987877 98.028070 99.998917 99.183863 99.989127 98.724264 99.098619 99.412437 99.412499 99.468583 99.802066 98.661186 99.802120 99.468590 99.444520 99.681558 99.741889 99.496107 99.681558 99.741889 99.485155 99.998510 99.687434 99.999185 99.554427 99.742149 99.572759 99.485147 99.998509 99.687442 99.719360 99.999222 99.553466 99.631066 99.585888 99.605681 98.675949 99.994790 98.675825 98.252858 98.707565 99.993998 99.431569 99.999740 99.656182 99.999822 99.586649 99.999805 99.720340 99.780295 99.999814 99.999742 99.732209 99.611694 99.999734 99.720346 99.999533 99.476569 99.999733 99.720343 99.999042 99.999090 99.416239 98.696728 98.696728 99.995062 99.503172 99.999995 99.999417 98.008908 99.999999 98.696728 99.263009 99.995062 99.502412 98.675943 99.998917 99.990128 99.183854 99.989127 99.412503 98.724252 99.098621 100.000000 100.000000 100.000000 99.999999 100.000000 99.999414 99.994754 99.999979 99.996878 99.999970 99.999999 100.000000 100.000000 100.000000 99.416239 99.103688 99.987877 98.028096 98.675943 99.998917 99.999999 99.183854 99.989127 99.412503 98.724250 99.098622 99.999991 100.000000 99.999999 100.000000 99.999570 99.469052 99.999665 99.999999 100.000000 99.999999 99.999995 99.999999 100.000000 100.000000 99.999802 99.682124 99.999737 99.999970 100.000000 100.000000 100.000000 100.000000 99.999999 99.742408 99.999140 99.502412 98.696741 99.990128 99.263020 99.995062 99.416241 99.103691 99.999979 100.000000 99.996878 99.999970 99.999991 99.999880 100.000000 100.000000 100.000000 100.000000 99.999581 99.999825 99.485125 100.000000 100.000000 100.000000 99.999574 99.485162 100.000000 100.000000 100.000000 99.999999 100.000000 99.999901 99.999840 99.999886 99.999906 99.719352 100.000000 100.000000 99.987877 98.028071 99.998917 99.999871 99.999968 99.720343 99.183863 99.989127 98.724262 99.098620 99.999979 100.000000 99.999970 99.996885 98.675949 99.994754 99.999992 99.412499 98.675948 99.994754 98.570590 99.684600 99.681510 99.496178 99.602283 99.482432 99.499601 99.767894 99.742149 99.572759 99.741913 99.742094 99.572776 99.685894 98.850434 99.999186 99.554434 99.719354 99.720342 99.999221 99.553474 99.485147 99.998509 99.687442 99.485053 99.271528 99.124577 99.999186 99.554434 99.999733 99.631071 99.999090 99.605691 99.497037 99.497043 99.502414 98.696752 99.502272 98.696752 99.999414 99.999414 99.433027 98.696426 99.202642 98.278376 98.838834 99.999281 99.783712 98.900764 98.791218 99.309546 99.999892 99.710061 99.999999 99.999999 99.999866 99.785701 100.000000 99.787069 99.999846 100.000010 99.715919 100.000000 100.000000 99.999883 99.788515 99.999800 99.999890 99.999868 99.771223 99.435943 99.527930 99.999848 99.999780 99.697630 99.784080 99.548396 99.999847 99.999451 99.710053 99.499935 99.520759 99.999847 99.999472 99.710058 99.999847 99.999472 99.710058 99.710076 99.745750 99.297301 99.995062 99.503172 99.503172 98.569717 99.999995 99.999417 99.999999 99.503172 98.696728 99.990128 99.263009 99.204665 99.502927 99.503171 98.726734 98.696703 98.696728 99.002585 98.788327 99.551423 100.000000 100.000000 99.995062 99.416239 99.103688 99.987877 98.028096 99.263009 99.999414 99.994754 99.999979 99.996885 99.999970 99.999999 99.999999 100.000000 100.000000 100.000000 100.000000 100.000000 99.999992 100.000000 99.999999 100.000000 99.999570 99.469052 99.999665 99.999999 98.675943 99.998917 99.990128 99.999999 99.183854 99.989127 99.412503 98.724250 99.098622 99.999414 99.994754 99.999979 100.000000 99.996885 99.999970 100.000000 99.999999 99.999995 99.999999 100.000000 100.000000 99.999802 99.682124 99.999737 99.999971 100.000000 100.000000 100.000000 100.000000 99.999999 99.742436 99.999140 98.008904 100.000000 100.000000 100.000000 99.999574 99.485148 99.502412 98.696741 99.990128 99.263020 99.995062 99.416241 99.103691 99.987877 98.028071 99.998917 100.000000 100.000000 100.000000 99.999999 100.000000 100.000000 100.000000 99.999840 100.000000 100.000000 99.719355 100.000000 100.000000 99.719355 100.000000 100.000000 100.000000 100.000000 100.000000 99.999859 100.000000 100.000000 99.720342 100.000000 100.000000 99.183863 99.989127 98.724262 99.098620 99.999979 100.000000 99.999847 99.710058 99.999970 99.996885 100.000000 99.999999 99.999992 100.000000 99.502415 98.696752 99.999414 100.000000 99.999999 99.412499 98.675948 99.994754 99.502415 98.696752 99.999414 99.520032 99.700704 99.510265 99.054091 99.441101 99.237706 99.998519 99.687456 99.996886 98.734072 99.616912 99.502572 99.736461 99.529633 99.719354 99.720342 99.999221 99.553474 99.719299 99.720343 99.571711 99.691310 99.332029 99.307928 99.999733 99.631071 99.999180 99.554469 99.997752 98.987485 99.999225 99.553502 99.998063 99.076643 99.999847 99.999090 99.605691 99.999844 99.998438 99.155836 99.999472 99.497043 99.548405 99.520767 99.548405 99.995062 99.416244 99.103692 100.000000 100.000000 99.999809 99.694534 99.995062 99.416244 99.103692 99.999995 98.462029 99.475760 99.274470 98.990676 99.995107 99.416244 99.103691 99.263020 99.999995 99.999995 99.257421 98.977717 99.263018 99.994377 99.262361 99.415597 99.103041 99.432138 99.063168 98.532947 98.925749 99.999737 99.574105 99.994305 99.256680 98.465497 99.039995 98.878931 98.884974 99.672040 99.509076 99.273999 99.050066 99.006752 99.276322 99.041420 100.000000 99.999995 100.000000 99.999809 99.694537 100.000000 99.658793 100.000000 99.999745 100.000000 100.000000 100.000000 99.999704 100.000000 99.999813 99.700761 100.000000 99.999890 99.999751 99.436013 100.000001 99.784039 99.999346 99.999999 99.999803 99.681323 99.500996 99.999733 99.999377 99.999999 99.999809 99.694528 99.522002 99.999372 99.522010 99.999402 99.999377 99.999999 99.999402 99.999809 99.694534 99.999377 99.999999 99.999809 99.694534 99.999999 99.999809 99.694549 99.999998 99.998817 99.732476 99.997662 98.734107 99.322168 99.287211 98.028072 98.027850 98.836273 97.952847 96.929340 98.402449 99.649937 99.059135 99.999995 99.999417 99.999417 99.379197 99.999417 99.999307 99.784877 99.999999 100.000000 100.000000 99.995062 99.416239 99.103688 99.999995 99.987877 98.028096 99.263009 98.028096 98.028098 99.728762 99.197803 99.026725 99.994853 99.995062 99.416360 99.416239 99.103795 99.103689 98.028976 99.263014 99.264368 99.056013 98.185164 99.050046 98.840202 99.002395 99.182512 98.789308 98.290191 99.995971 99.727671 99.043969 99.681106 99.046389 98.390271 99.999999 100.000000 100.000000 98.675943 99.998917 99.990128 99.999999 99.183854 99.989127 99.412503 98.724250 99.098622 99.987877 98.675943 98.675921 98.632083 99.999992 100.000000 99.999999 100.000000 100.000000 99.999570 99.999570 99.469052 99.999999 99.999665 99.999665 99.999999 100.000000 99.999999 99.999995 99.999999 100.000000 100.000000 99.999802 99.682124 99.999737 99.999971 99.999414 99.994754 99.999979 100.000000 99.996885 99.999970 99.999992 100.000000 99.999999 98.569715 100.000000 100.000000 100.000000 100.000000 99.999999 99.742436 99.999140 100.000000 100.000000 100.000000 100.000000 100.000000 99.999574 99.999840 99.485148 99.419712 99.502498 99.502412 99.502412 98.650767 98.696716 98.696741 99.990128 99.263020 99.002582 98.788321 99.551422 100.000000 100.000000 99.719355 99.995062 99.416241 99.103691 99.987877 98.028071 99.263020 99.998917 99.990128 99.183863 99.989127 98.724262 99.098620 99.999979 100.000000 100.000000 100.000000 100.000000 100.000000 100.000000 100.000000 99.999859 100.000000 100.000000 99.720342 99.999859 100.000000 99.720342 100.000000 100.000000 100.000000 100.000000 100.000000 99.999847 99.710058 100.000000 100.000000 100.000000 99.999970 99.996885 100.000000 99.412499 99.999809 99.694534 99.999999 99.999992 100.000000 100.000000 99.999999 100.000000 100.000000 100.000000 99.263020 99.995062 99.416244 99.103692 100.000000 99.999995 100.000000 98.028073 98.675948 99.994754 98.008905 99.502415 98.696752 99.999414 99.263020 99.995062 99.416244 99.103692 99.999995 98.838630 99.677783 99.722780 98.002737 99.038925 99.514338 99.479739 99.150622 99.481753 99.146696 99.635902 99.509045 99.003789 99.092266 99.522559 99.500250 99.999730 99.631091 99.998679 99.194059 99.999105 99.605716 99.998394 99.361124 99.619911 99.517523 99.686106 99.513747 99.999466 99.497082 99.998659 99.383446 99.999380 99.548439 99.998630 99.385626 99.999402 99.520767 99.522010 99.999402 99.520802 99.998678 99.401549 99.446881 99.694478 99.704947 100.000000 99.999824 99.446881 99.694478 99.704947 99.998917 99.990128 99.998917 99.990128 99.999999 100.000000 99.999824 99.446886 99.694481 99.704950 99.998917 99.990128 99.987877 99.999999 98.832651 99.338464 98.839715 99.001163 99.996722 98.797267 99.002381 98.705637 99.998761 99.990127 99.987712 99.987877 99.999999 99.999914 99.995256 99.280654 99.381183 98.978741 99.987871 99.984119 99.739186 99.615772 99.765085 99.787251 99.076088 99.995539 99.379532 99.379685 99.113415 99.112408 99.996453 98.856791 99.261907 99.102019 100.000000 100.000000 100.000000 100.000000 99.999824 99.455478 99.700805 99.711157 100.000000 100.000000 99.716157 99.999844 98.827339 100.000000 100.000000 100.000000 99.999892 100.000000 99.999827 99.428920 99.681043 99.691747 100.000000 99.999999 99.783339 100.000000 99.999685 99.496353 99.517449 99.517457 99.517457 100.000000 99.999816 99.999274 100.000000 99.446876 99.694472 99.704941 100.000000 99.999824 99.999304 99.999999 99.999304 99.999999 99.999304 100.000000 99.999999 99.446881 99.999824 99.694478 99.704947 100.000000 99.999999 99.446881 99.999824 99.694478 99.704947 99.999999 99.999999 99.999823 99.694493 99.998663 99.999033 99.998926 99.732971 99.193858 99.350574 99.367983 99.289994 99.704961 99.446903 99.742649 99.500794 99.300611 99.046280 99.183862 99.989127 99.098620 98.724258 99.183862 99.989127 99.098620 98.724260 99.184036 99.989127 99.098361 98.727412 99.274980 99.614868 99.988247 98.835644 98.245987 99.010264 98.672580 98.671982 98.697805 99.995590 99.994314 99.437930 99.572346 99.113729 99.996581 99.136736 100.000000 99.999995 99.999999 99.999999 99.469052 99.379777 99.999850 99.721204 99.999888 99.785513 100.000000 100.000000 100.000000 99.999999 99.998917 99.990128 99.999999 99.183854 99.989127 99.412503 98.724250 99.098622 99.987875 99.183854 99.989127 99.412503 98.724250 99.098622 99.183959 99.989448 99.412567 98.724264 99.098629 99.070392 98.731106 99.098722 99.192807 98.117520 98.254240 98.969884 98.840115 99.338441 98.836683 98.978577 98.979335 99.566284 98.842317 99.998289 99.998916 99.987158 99.560583 99.989814 99.338558 98.836809 99.029350 99.782800 99.338577 99.506855 98.838908 99.384884 99.996439 99.994924 99.381080 99.997082 99.118455 99.103542 100.000000 99.999570 99.999665 99.999999 99.999414 99.994754 99.999979 100.000000 99.996885 99.999970 99.994754 99.994608 99.726286 100.000000 99.999999 99.999995 99.999999 100.000000 100.000000 99.999802 99.999802 99.682124 99.682124 99.999737 99.999737 99.999971 99.999971 100.000000 100.000000 100.000000 100.000000 99.999999 99.742436 99.999140 98.402449 99.649937 99.059139 99.999992 100.000000 99.999999 100.000000 100.000000 100.000000 99.999414 99.999999 99.999187 99.717678 99.379195 100.000000 100.000000 100.000000 100.000000 100.000000 99.999574 99.999840 99.485148 100.000000 100.000000 100.000000 99.719355 99.050049 99.791068 99.197898 99.026728 99.994848 99.995062 99.416232 99.416241 99.103796 99.103691 99.999995 99.987877 98.028071 99.263025 98.028073 98.028951 99.264379 99.056022 98.185143 98.840196 99.002392 99.681105 98.390267 99.995971 99.182512 98.789297 99.727672 98.290188 99.043975 99.046391 99.999859 100.000000 99.720342 100.000000 98.675948 99.998917 99.990129 99.999999 99.183863 99.989127 99.412499 98.724262 99.098620 99.987874 98.675926 98.632088 99.999979 100.000000 99.999970 99.996885 100.000000 100.000000 100.000000 100.000000 100.000000 100.000000 99.999847 99.710058 100.000000 99.999847 99.710058 100.000000 100.000000 100.000000 100.000000 100.000000 99.999809 99.694534 100.000000 100.000000 100.000000 99.999999 99.999992 100.000000 98.569716 99.994754 99.999824 99.694478 100.000000 99.999999 100.000000 100.000000 100.000000 100.000000 100.000000 100.000000 99.987877 98.028073 99.998917 100.000000 99.999999 99.183862 99.989127 98.724258 99.098620 99.419713 99.502501 99.502415 99.502415 98.650776 98.696727 98.696752 99.999414 99.990128 99.263020 99.002582 98.788320 99.551422 99.995062 99.416244 99.103692 99.999995 99.987877 98.028073 99.263020 99.704947 99.446881 99.998917 99.990128 100.000000 99.999999 99.448300 99.439154 99.778994 99.771431 99.605054 99.590980 99.638194 99.680741 99.303237 99.718534 98.371824 99.783342 99.995561 98.816508 99.421766 99.449637 99.422158 99.796634 99.796883 99.422199 99.796827 99.495407 99.730056 99.331806 99.377172 99.502742 99.503869 99.047679 99.511940 99.351450 99.359080 99.679539 99.522402 99.592024 99.514422 99.005212 99.094970 99.522208 99.499404 99.635685 99.514486 99.611826 99.518038 99.999300 99.522051 99.998502 99.363552 99.517484 99.615902 99.511646 99.385663 99.998574 99.380902 99.571865 99.571865 99.571865 99.999586 99.999818 99.571864 100.000000 99.999586 99.999818 99.999979 99.566668 100.000000 99.999586 99.999818 99.999979 99.999970 100.000000 100.000000 99.999979 99.999970 100.000000 100.000000 100.000000 100.000000 99.999586 99.999818 99.581833 100.000000 99.999979 99.999970 100.000000 99.117956 99.996432 99.997479 99.994616 99.260072 100.000069 99.999970 100.000000 100.000013 99.995375 99.999797 99.998920 99.998690 99.997915 99.996554 99.997054 99.135314 99.136259 99.384972 99.103416 100.000000 100.000000 100.000000 100.000000 100.000000 100.000000 100.000000 99.999591 99.999821 99.571870 100.000000 100.000000 99.999773 99.622178 99.999885 100.000000 99.999998 99.776898 100.000000 99.999575 99.999811 99.571865 100.000000 99.999701 99.497690 100.000000 99.999307 99.518715 99.999338 99.518723 99.999338 99.999338 99.999341 99.518723 99.518757 100.000000 100.000000 99.999585 99.999818 99.571865 100.000000 100.000000 100.000000 100.000000 99.999999 99.999106 100.000000 99.999586 99.999818 99.571811 100.000000 99.999586 99.999818 100.000000 99.999817 99.998716 99.998934 99.205373 99.377479 99.999584 99.448910 99.998519 99.196793 99.181595 99.412500 99.412500 99.412500 99.412438 99.351496 99.167059 99.996885 99.996885 99.996878 99.996020 99.697454 99.610500 99.701513 99.999849 99.218143 98.697655 99.697699 99.682966 99.999861 99.995150 99.993188 99.684673 99.729908 99.596174 99.437736 99.999870 99.678965 99.755175 99.781784 99.999839 99.696350 99.999792 99.656931 99.751693 99.716209 99.704333 99.720940 99.770973 99.712575 99.595594 99.680351 99.689785 99.638780 99.532523 99.620219 99.620376 99.597391 99.437460 100.000000 99.113967 100.000000 99.997017 99.136275 99.999665 99.999999 100.000000 100.000000 100.000000 99.999903 99.469052 99.999894 99.675825 99.379032 99.999834 99.669849 99.788757 99.999999 99.999999 99.999570 100.000000 99.999979 100.000000 99.996885 99.999971 99.996881 100.000259 99.995514 99.487166 99.996093 99.995208 99.381170 99.255560 99.998419 100.000101 99.995020 99.998208 99.384971 99.997451 99.117970 99.103983 99.999802 99.682124 99.999737 99.999971 99.999992 100.000000 99.999999 99.999991 99.999794 99.666192 100.000000 100.000000 100.000000 100.000000 99.999999 99.742436 99.742436 99.999140 99.999140 100.000000 100.000000 100.000000 99.999574 99.999840 99.485148 100.000000 99.113730 99.996581 100.000000 99.136743 100.000000 100.000000 100.000000 99.999999 100.000000 99.999999 99.999880 100.000000 100.000000 100.000000 99.999873 99.786430 99.719214 99.379776 100.000000 100.000000 100.000000 99.719355 99.999859 100.000000 100.000000 99.720342 100.000000 99.384885 98.969881 98.840109 99.338441 98.836670 99.566453 98.842312 99.998286 99.998916 99.560584 99.989815 100.000000 99.183863 99.989127 99.412500 98.724262 99.098620 99.987158 99.183968 99.989448 99.412564 98.